Title: CKT13
Date: Thu Apr  2 14:14:10 2020
Plotname: Transient analysis
Flags: real
No. Variables: 3
No. Points: 50001   
Command: version 4.3.9
Variables:
 0 time S
 1 L4#branch A
 2 L9#branch A
Values:
 0	0.000000000000000e+00
	0.000000000000000e+00
	0.000000000000000e+00
 1	1.000000000000000e-12
	0.000000000000000e+00
	-0.000000000000000e+00
 2	2.000000000000000e-12
	0.000000000000000e+00
	-0.000000000000000e+00
 3	3.000000000000000e-12
	0.000000000000000e+00
	-0.000000000000000e+00
 4	4.000000000000000e-12
	0.000000000000000e+00
	-0.000000000000000e+00
 5	5.000000000000000e-12
	0.000000000000000e+00
	-0.000000000000000e+00
 6	5.999999999999999e-12
	0.000000000000000e+00
	-0.000000000000000e+00
 7	6.999999999999999e-12
	0.000000000000000e+00
	-0.000000000000000e+00
 8	8.000000000000000e-12
	0.000000000000000e+00
	-0.000000000000000e+00
 9	9.000000000000000e-12
	0.000000000000000e+00
	-0.000000000000000e+00
 10	9.999999999999999e-12
	0.000000000000000e+00
	-0.000000000000000e+00
 11	1.100000000000000e-11
	0.000000000000000e+00
	-0.000000000000000e+00
 12	1.200000000000000e-11
	0.000000000000000e+00
	-0.000000000000000e+00
 13	1.300000000000000e-11
	0.000000000000000e+00
	-0.000000000000000e+00
 14	1.400000000000000e-11
	0.000000000000000e+00
	-0.000000000000000e+00
 15	1.500000000000000e-11
	0.000000000000000e+00
	-0.000000000000000e+00
 16	1.600000000000000e-11
	0.000000000000000e+00
	-0.000000000000000e+00
 17	1.700000000000000e-11
	0.000000000000000e+00
	-0.000000000000000e+00
 18	1.800000000000000e-11
	0.000000000000000e+00
	-0.000000000000000e+00
 19	1.900000000000000e-11
	0.000000000000000e+00
	-0.000000000000000e+00
 20	2.000000000000000e-11
	0.000000000000000e+00
	-0.000000000000000e+00
 21	2.100000000000000e-11
	0.000000000000000e+00
	-0.000000000000000e+00
 22	2.200000000000000e-11
	0.000000000000000e+00
	-0.000000000000000e+00
 23	2.300000000000000e-11
	0.000000000000000e+00
	-0.000000000000000e+00
 24	2.400000000000000e-11
	0.000000000000000e+00
	-0.000000000000000e+00
 25	2.500000000000000e-11
	0.000000000000000e+00
	-0.000000000000000e+00
 26	2.600000000000000e-11
	0.000000000000000e+00
	-0.000000000000000e+00
 27	2.700000000000000e-11
	0.000000000000000e+00
	-0.000000000000000e+00
 28	2.800000000000000e-11
	0.000000000000000e+00
	-0.000000000000000e+00
 29	2.900000000000000e-11
	0.000000000000000e+00
	-0.000000000000000e+00
 30	3.000000000000000e-11
	0.000000000000000e+00
	-0.000000000000000e+00
 31	3.100000000000000e-11
	0.000000000000000e+00
	-0.000000000000000e+00
 32	3.200000000000001e-11
	0.000000000000000e+00
	-0.000000000000000e+00
 33	3.300000000000001e-11
	0.000000000000000e+00
	-0.000000000000000e+00
 34	3.400000000000001e-11
	0.000000000000000e+00
	-0.000000000000000e+00
 35	3.500000000000001e-11
	0.000000000000000e+00
	-0.000000000000000e+00
 36	3.600000000000002e-11
	0.000000000000000e+00
	-0.000000000000000e+00
 37	3.700000000000002e-11
	0.000000000000000e+00
	-0.000000000000000e+00
 38	3.800000000000002e-11
	0.000000000000000e+00
	-0.000000000000000e+00
 39	3.900000000000003e-11
	0.000000000000000e+00
	-0.000000000000000e+00
 40	4.000000000000003e-11
	0.000000000000000e+00
	-0.000000000000000e+00
 41	4.100000000000003e-11
	0.000000000000000e+00
	-0.000000000000000e+00
 42	4.200000000000004e-11
	0.000000000000000e+00
	-0.000000000000000e+00
 43	4.300000000000004e-11
	0.000000000000000e+00
	-0.000000000000000e+00
 44	4.400000000000004e-11
	0.000000000000000e+00
	-0.000000000000000e+00
 45	4.500000000000004e-11
	0.000000000000000e+00
	-0.000000000000000e+00
 46	4.600000000000005e-11
	0.000000000000000e+00
	-0.000000000000000e+00
 47	4.700000000000005e-11
	0.000000000000000e+00
	-0.000000000000000e+00
 48	4.800000000000005e-11
	0.000000000000000e+00
	-0.000000000000000e+00
 49	4.900000000000006e-11
	0.000000000000000e+00
	-0.000000000000000e+00
 50	5.000000000000006e-11
	0.000000000000000e+00
	-0.000000000000000e+00
 51	5.100000000000006e-11
	0.000000000000000e+00
	-0.000000000000000e+00
 52	5.200000000000007e-11
	0.000000000000000e+00
	-0.000000000000000e+00
 53	5.300000000000007e-11
	0.000000000000000e+00
	-0.000000000000000e+00
 54	5.400000000000007e-11
	0.000000000000000e+00
	-0.000000000000000e+00
 55	5.500000000000008e-11
	0.000000000000000e+00
	-0.000000000000000e+00
 56	5.600000000000008e-11
	0.000000000000000e+00
	-0.000000000000000e+00
 57	5.700000000000008e-11
	0.000000000000000e+00
	-0.000000000000000e+00
 58	5.800000000000008e-11
	0.000000000000000e+00
	-0.000000000000000e+00
 59	5.900000000000008e-11
	0.000000000000000e+00
	-0.000000000000000e+00
 60	6.000000000000008e-11
	0.000000000000000e+00
	-0.000000000000000e+00
 61	6.100000000000007e-11
	0.000000000000000e+00
	-0.000000000000000e+00
 62	6.200000000000007e-11
	0.000000000000000e+00
	-0.000000000000000e+00
 63	6.300000000000007e-11
	0.000000000000000e+00
	-0.000000000000000e+00
 64	6.400000000000006e-11
	0.000000000000000e+00
	-0.000000000000000e+00
 65	6.500000000000006e-11
	0.000000000000000e+00
	-0.000000000000000e+00
 66	6.600000000000006e-11
	0.000000000000000e+00
	-0.000000000000000e+00
 67	6.700000000000005e-11
	0.000000000000000e+00
	-0.000000000000000e+00
 68	6.800000000000005e-11
	0.000000000000000e+00
	-0.000000000000000e+00
 69	6.900000000000005e-11
	0.000000000000000e+00
	-0.000000000000000e+00
 70	7.000000000000004e-11
	0.000000000000000e+00
	-0.000000000000000e+00
 71	7.100000000000004e-11
	0.000000000000000e+00
	-0.000000000000000e+00
 72	7.200000000000004e-11
	0.000000000000000e+00
	-0.000000000000000e+00
 73	7.300000000000003e-11
	0.000000000000000e+00
	-0.000000000000000e+00
 74	7.400000000000003e-11
	0.000000000000000e+00
	-0.000000000000000e+00
 75	7.500000000000003e-11
	0.000000000000000e+00
	-0.000000000000000e+00
 76	7.600000000000002e-11
	0.000000000000000e+00
	-0.000000000000000e+00
 77	7.700000000000002e-11
	0.000000000000000e+00
	-0.000000000000000e+00
 78	7.800000000000001e-11
	0.000000000000000e+00
	-0.000000000000000e+00
 79	7.900000000000001e-11
	0.000000000000000e+00
	-0.000000000000000e+00
 80	8.000000000000001e-11
	0.000000000000000e+00
	-0.000000000000000e+00
 81	8.100000000000000e-11
	0.000000000000000e+00
	-0.000000000000000e+00
 82	8.200000000000000e-11
	0.000000000000000e+00
	-0.000000000000000e+00
 83	8.300000000000000e-11
	0.000000000000000e+00
	-0.000000000000000e+00
 84	8.399999999999999e-11
	0.000000000000000e+00
	-0.000000000000000e+00
 85	8.499999999999999e-11
	0.000000000000000e+00
	-0.000000000000000e+00
 86	8.599999999999999e-11
	0.000000000000000e+00
	-0.000000000000000e+00
 87	8.699999999999998e-11
	0.000000000000000e+00
	-0.000000000000000e+00
 88	8.799999999999998e-11
	0.000000000000000e+00
	-0.000000000000000e+00
 89	8.899999999999998e-11
	0.000000000000000e+00
	-0.000000000000000e+00
 90	8.999999999999997e-11
	0.000000000000000e+00
	-0.000000000000000e+00
 91	9.099999999999997e-11
	0.000000000000000e+00
	-0.000000000000000e+00
 92	9.199999999999997e-11
	0.000000000000000e+00
	-0.000000000000000e+00
 93	9.299999999999996e-11
	0.000000000000000e+00
	-0.000000000000000e+00
 94	9.399999999999996e-11
	0.000000000000000e+00
	-0.000000000000000e+00
 95	9.499999999999996e-11
	0.000000000000000e+00
	-0.000000000000000e+00
 96	9.599999999999995e-11
	0.000000000000000e+00
	-0.000000000000000e+00
 97	9.699999999999995e-11
	0.000000000000000e+00
	-0.000000000000000e+00
 98	9.799999999999995e-11
	0.000000000000000e+00
	-0.000000000000000e+00
 99	9.899999999999994e-11
	0.000000000000000e+00
	-0.000000000000000e+00
 100	9.999999999999994e-11
	0.000000000000000e+00
	-0.000000000000000e+00
 101	1.009999999999999e-10
	0.000000000000000e+00
	-0.000000000000000e+00
 102	1.019999999999999e-10
	0.000000000000000e+00
	-0.000000000000000e+00
 103	1.029999999999999e-10
	0.000000000000000e+00
	-0.000000000000000e+00
 104	1.039999999999999e-10
	0.000000000000000e+00
	-0.000000000000000e+00
 105	1.049999999999999e-10
	0.000000000000000e+00
	-0.000000000000000e+00
 106	1.059999999999999e-10
	0.000000000000000e+00
	-0.000000000000000e+00
 107	1.069999999999999e-10
	0.000000000000000e+00
	-0.000000000000000e+00
 108	1.079999999999999e-10
	0.000000000000000e+00
	-0.000000000000000e+00
 109	1.089999999999999e-10
	0.000000000000000e+00
	-0.000000000000000e+00
 110	1.099999999999999e-10
	0.000000000000000e+00
	-0.000000000000000e+00
 111	1.109999999999999e-10
	0.000000000000000e+00
	-0.000000000000000e+00
 112	1.119999999999999e-10
	0.000000000000000e+00
	-0.000000000000000e+00
 113	1.129999999999999e-10
	0.000000000000000e+00
	-0.000000000000000e+00
 114	1.139999999999999e-10
	0.000000000000000e+00
	-0.000000000000000e+00
 115	1.149999999999999e-10
	0.000000000000000e+00
	-0.000000000000000e+00
 116	1.159999999999999e-10
	0.000000000000000e+00
	-0.000000000000000e+00
 117	1.169999999999999e-10
	0.000000000000000e+00
	-0.000000000000000e+00
 118	1.179999999999999e-10
	0.000000000000000e+00
	-0.000000000000000e+00
 119	1.189999999999999e-10
	0.000000000000000e+00
	-0.000000000000000e+00
 120	1.199999999999999e-10
	0.000000000000000e+00
	-0.000000000000000e+00
 121	1.209999999999999e-10
	0.000000000000000e+00
	-0.000000000000000e+00
 122	1.219999999999999e-10
	0.000000000000000e+00
	-0.000000000000000e+00
 123	1.229999999999999e-10
	0.000000000000000e+00
	-0.000000000000000e+00
 124	1.239999999999999e-10
	0.000000000000000e+00
	-0.000000000000000e+00
 125	1.249999999999999e-10
	0.000000000000000e+00
	-0.000000000000000e+00
 126	1.259999999999998e-10
	0.000000000000000e+00
	-0.000000000000000e+00
 127	1.269999999999998e-10
	0.000000000000000e+00
	-0.000000000000000e+00
 128	1.279999999999998e-10
	0.000000000000000e+00
	-0.000000000000000e+00
 129	1.289999999999998e-10
	0.000000000000000e+00
	-0.000000000000000e+00
 130	1.299999999999998e-10
	0.000000000000000e+00
	-0.000000000000000e+00
 131	1.309999999999998e-10
	0.000000000000000e+00
	-0.000000000000000e+00
 132	1.319999999999998e-10
	0.000000000000000e+00
	-0.000000000000000e+00
 133	1.329999999999998e-10
	0.000000000000000e+00
	-0.000000000000000e+00
 134	1.339999999999998e-10
	0.000000000000000e+00
	-0.000000000000000e+00
 135	1.349999999999998e-10
	0.000000000000000e+00
	-0.000000000000000e+00
 136	1.359999999999998e-10
	0.000000000000000e+00
	-0.000000000000000e+00
 137	1.369999999999998e-10
	0.000000000000000e+00
	-0.000000000000000e+00
 138	1.379999999999998e-10
	0.000000000000000e+00
	-0.000000000000000e+00
 139	1.389999999999998e-10
	0.000000000000000e+00
	-0.000000000000000e+00
 140	1.399999999999998e-10
	0.000000000000000e+00
	-0.000000000000000e+00
 141	1.409999999999998e-10
	0.000000000000000e+00
	-0.000000000000000e+00
 142	1.419999999999998e-10
	0.000000000000000e+00
	-0.000000000000000e+00
 143	1.429999999999998e-10
	0.000000000000000e+00
	-0.000000000000000e+00
 144	1.439999999999998e-10
	0.000000000000000e+00
	-0.000000000000000e+00
 145	1.449999999999998e-10
	0.000000000000000e+00
	-0.000000000000000e+00
 146	1.459999999999998e-10
	0.000000000000000e+00
	-0.000000000000000e+00
 147	1.469999999999998e-10
	0.000000000000000e+00
	-0.000000000000000e+00
 148	1.479999999999998e-10
	0.000000000000000e+00
	-0.000000000000000e+00
 149	1.489999999999998e-10
	0.000000000000000e+00
	-0.000000000000000e+00
 150	1.499999999999998e-10
	0.000000000000000e+00
	-0.000000000000000e+00
 151	1.509999999999998e-10
	0.000000000000000e+00
	-0.000000000000000e+00
 152	1.519999999999998e-10
	0.000000000000000e+00
	-0.000000000000000e+00
 153	1.529999999999998e-10
	0.000000000000000e+00
	-0.000000000000000e+00
 154	1.539999999999998e-10
	0.000000000000000e+00
	-0.000000000000000e+00
 155	1.549999999999997e-10
	0.000000000000000e+00
	-0.000000000000000e+00
 156	1.559999999999997e-10
	0.000000000000000e+00
	-0.000000000000000e+00
 157	1.569999999999997e-10
	0.000000000000000e+00
	-0.000000000000000e+00
 158	1.579999999999997e-10
	0.000000000000000e+00
	-0.000000000000000e+00
 159	1.589999999999997e-10
	0.000000000000000e+00
	-0.000000000000000e+00
 160	1.599999999999997e-10
	0.000000000000000e+00
	-0.000000000000000e+00
 161	1.609999999999997e-10
	0.000000000000000e+00
	-0.000000000000000e+00
 162	1.619999999999997e-10
	0.000000000000000e+00
	-0.000000000000000e+00
 163	1.629999999999997e-10
	0.000000000000000e+00
	-0.000000000000000e+00
 164	1.639999999999997e-10
	0.000000000000000e+00
	-0.000000000000000e+00
 165	1.649999999999997e-10
	0.000000000000000e+00
	-0.000000000000000e+00
 166	1.659999999999997e-10
	0.000000000000000e+00
	-0.000000000000000e+00
 167	1.669999999999997e-10
	0.000000000000000e+00
	-0.000000000000000e+00
 168	1.679999999999997e-10
	0.000000000000000e+00
	-0.000000000000000e+00
 169	1.689999999999997e-10
	0.000000000000000e+00
	-0.000000000000000e+00
 170	1.699999999999997e-10
	0.000000000000000e+00
	-0.000000000000000e+00
 171	1.709999999999997e-10
	0.000000000000000e+00
	-0.000000000000000e+00
 172	1.719999999999997e-10
	0.000000000000000e+00
	-0.000000000000000e+00
 173	1.729999999999997e-10
	0.000000000000000e+00
	-0.000000000000000e+00
 174	1.739999999999997e-10
	0.000000000000000e+00
	-0.000000000000000e+00
 175	1.749999999999997e-10
	0.000000000000000e+00
	-0.000000000000000e+00
 176	1.759999999999997e-10
	0.000000000000000e+00
	-0.000000000000000e+00
 177	1.769999999999997e-10
	0.000000000000000e+00
	-0.000000000000000e+00
 178	1.779999999999997e-10
	0.000000000000000e+00
	-0.000000000000000e+00
 179	1.789999999999997e-10
	0.000000000000000e+00
	-0.000000000000000e+00
 180	1.799999999999997e-10
	0.000000000000000e+00
	-0.000000000000000e+00
 181	1.809999999999997e-10
	0.000000000000000e+00
	-0.000000000000000e+00
 182	1.819999999999997e-10
	0.000000000000000e+00
	-0.000000000000000e+00
 183	1.829999999999997e-10
	0.000000000000000e+00
	-0.000000000000000e+00
 184	1.839999999999996e-10
	0.000000000000000e+00
	-0.000000000000000e+00
 185	1.849999999999996e-10
	0.000000000000000e+00
	-0.000000000000000e+00
 186	1.859999999999996e-10
	0.000000000000000e+00
	-0.000000000000000e+00
 187	1.869999999999996e-10
	0.000000000000000e+00
	-0.000000000000000e+00
 188	1.879999999999996e-10
	0.000000000000000e+00
	-0.000000000000000e+00
 189	1.889999999999996e-10
	0.000000000000000e+00
	-0.000000000000000e+00
 190	1.899999999999996e-10
	0.000000000000000e+00
	-0.000000000000000e+00
 191	1.909999999999996e-10
	0.000000000000000e+00
	-0.000000000000000e+00
 192	1.919999999999996e-10
	0.000000000000000e+00
	-0.000000000000000e+00
 193	1.929999999999996e-10
	0.000000000000000e+00
	-0.000000000000000e+00
 194	1.939999999999996e-10
	0.000000000000000e+00
	-0.000000000000000e+00
 195	1.949999999999996e-10
	0.000000000000000e+00
	-0.000000000000000e+00
 196	1.959999999999996e-10
	0.000000000000000e+00
	-0.000000000000000e+00
 197	1.969999999999996e-10
	0.000000000000000e+00
	-0.000000000000000e+00
 198	1.979999999999996e-10
	0.000000000000000e+00
	-0.000000000000000e+00
 199	1.989999999999996e-10
	0.000000000000000e+00
	-0.000000000000000e+00
 200	1.999999999999996e-10
	0.000000000000000e+00
	-0.000000000000000e+00
 201	2.009999999999996e-10
	0.000000000000000e+00
	-0.000000000000000e+00
 202	2.019999999999996e-10
	0.000000000000000e+00
	-0.000000000000000e+00
 203	2.029999999999996e-10
	0.000000000000000e+00
	-0.000000000000000e+00
 204	2.039999999999996e-10
	0.000000000000000e+00
	-0.000000000000000e+00
 205	2.049999999999996e-10
	0.000000000000000e+00
	-0.000000000000000e+00
 206	2.059999999999996e-10
	0.000000000000000e+00
	-0.000000000000000e+00
 207	2.069999999999996e-10
	0.000000000000000e+00
	-0.000000000000000e+00
 208	2.079999999999996e-10
	0.000000000000000e+00
	-0.000000000000000e+00
 209	2.089999999999996e-10
	0.000000000000000e+00
	-0.000000000000000e+00
 210	2.099999999999996e-10
	0.000000000000000e+00
	-0.000000000000000e+00
 211	2.109999999999996e-10
	0.000000000000000e+00
	-0.000000000000000e+00
 212	2.119999999999996e-10
	0.000000000000000e+00
	-0.000000000000000e+00
 213	2.129999999999995e-10
	0.000000000000000e+00
	-0.000000000000000e+00
 214	2.139999999999995e-10
	0.000000000000000e+00
	-0.000000000000000e+00
 215	2.149999999999995e-10
	0.000000000000000e+00
	-0.000000000000000e+00
 216	2.159999999999995e-10
	0.000000000000000e+00
	-0.000000000000000e+00
 217	2.169999999999995e-10
	0.000000000000000e+00
	-0.000000000000000e+00
 218	2.179999999999995e-10
	0.000000000000000e+00
	-0.000000000000000e+00
 219	2.189999999999995e-10
	0.000000000000000e+00
	-0.000000000000000e+00
 220	2.199999999999995e-10
	0.000000000000000e+00
	-0.000000000000000e+00
 221	2.209999999999995e-10
	0.000000000000000e+00
	-0.000000000000000e+00
 222	2.219999999999995e-10
	0.000000000000000e+00
	-0.000000000000000e+00
 223	2.229999999999995e-10
	0.000000000000000e+00
	-0.000000000000000e+00
 224	2.239999999999995e-10
	0.000000000000000e+00
	-0.000000000000000e+00
 225	2.249999999999995e-10
	0.000000000000000e+00
	-0.000000000000000e+00
 226	2.259999999999995e-10
	0.000000000000000e+00
	-0.000000000000000e+00
 227	2.269999999999995e-10
	0.000000000000000e+00
	-0.000000000000000e+00
 228	2.279999999999995e-10
	0.000000000000000e+00
	-0.000000000000000e+00
 229	2.289999999999995e-10
	0.000000000000000e+00
	-0.000000000000000e+00
 230	2.299999999999995e-10
	0.000000000000000e+00
	-0.000000000000000e+00
 231	2.309999999999995e-10
	0.000000000000000e+00
	-0.000000000000000e+00
 232	2.319999999999995e-10
	0.000000000000000e+00
	-0.000000000000000e+00
 233	2.329999999999995e-10
	0.000000000000000e+00
	-0.000000000000000e+00
 234	2.339999999999995e-10
	0.000000000000000e+00
	-0.000000000000000e+00
 235	2.349999999999995e-10
	0.000000000000000e+00
	-0.000000000000000e+00
 236	2.359999999999995e-10
	0.000000000000000e+00
	-0.000000000000000e+00
 237	2.369999999999995e-10
	0.000000000000000e+00
	-0.000000000000000e+00
 238	2.379999999999995e-10
	0.000000000000000e+00
	-0.000000000000000e+00
 239	2.389999999999995e-10
	0.000000000000000e+00
	-0.000000000000000e+00
 240	2.399999999999995e-10
	0.000000000000000e+00
	-0.000000000000000e+00
 241	2.409999999999995e-10
	0.000000000000000e+00
	-0.000000000000000e+00
 242	2.419999999999995e-10
	0.000000000000000e+00
	-0.000000000000000e+00
 243	2.429999999999995e-10
	0.000000000000000e+00
	-0.000000000000000e+00
 244	2.439999999999995e-10
	0.000000000000000e+00
	-0.000000000000000e+00
 245	2.449999999999995e-10
	0.000000000000000e+00
	-0.000000000000000e+00
 246	2.459999999999995e-10
	0.000000000000000e+00
	-0.000000000000000e+00
 247	2.469999999999995e-10
	0.000000000000000e+00
	-0.000000000000000e+00
 248	2.479999999999995e-10
	0.000000000000000e+00
	-0.000000000000000e+00
 249	2.489999999999995e-10
	0.000000000000000e+00
	-0.000000000000000e+00
 250	2.499999999999994e-10
	0.000000000000000e+00
	-0.000000000000000e+00
 251	2.509999999999994e-10
	0.000000000000000e+00
	-0.000000000000000e+00
 252	2.519999999999994e-10
	0.000000000000000e+00
	-0.000000000000000e+00
 253	2.529999999999994e-10
	0.000000000000000e+00
	-0.000000000000000e+00
 254	2.539999999999994e-10
	0.000000000000000e+00
	-0.000000000000000e+00
 255	2.549999999999994e-10
	0.000000000000000e+00
	-0.000000000000000e+00
 256	2.559999999999994e-10
	0.000000000000000e+00
	-0.000000000000000e+00
 257	2.569999999999994e-10
	0.000000000000000e+00
	-0.000000000000000e+00
 258	2.579999999999994e-10
	0.000000000000000e+00
	-0.000000000000000e+00
 259	2.589999999999994e-10
	0.000000000000000e+00
	-0.000000000000000e+00
 260	2.599999999999994e-10
	0.000000000000000e+00
	-0.000000000000000e+00
 261	2.609999999999994e-10
	0.000000000000000e+00
	-0.000000000000000e+00
 262	2.619999999999994e-10
	0.000000000000000e+00
	-0.000000000000000e+00
 263	2.629999999999994e-10
	0.000000000000000e+00
	-0.000000000000000e+00
 264	2.639999999999994e-10
	0.000000000000000e+00
	-0.000000000000000e+00
 265	2.649999999999994e-10
	0.000000000000000e+00
	-0.000000000000000e+00
 266	2.659999999999994e-10
	0.000000000000000e+00
	-0.000000000000000e+00
 267	2.669999999999994e-10
	0.000000000000000e+00
	-0.000000000000000e+00
 268	2.679999999999994e-10
	0.000000000000000e+00
	-0.000000000000000e+00
 269	2.689999999999994e-10
	0.000000000000000e+00
	-0.000000000000000e+00
 270	2.699999999999994e-10
	0.000000000000000e+00
	-0.000000000000000e+00
 271	2.709999999999994e-10
	0.000000000000000e+00
	-0.000000000000000e+00
 272	2.719999999999994e-10
	0.000000000000000e+00
	-0.000000000000000e+00
 273	2.729999999999994e-10
	0.000000000000000e+00
	-0.000000000000000e+00
 274	2.739999999999994e-10
	0.000000000000000e+00
	-0.000000000000000e+00
 275	2.749999999999994e-10
	0.000000000000000e+00
	-0.000000000000000e+00
 276	2.759999999999994e-10
	0.000000000000000e+00
	-0.000000000000000e+00
 277	2.769999999999994e-10
	0.000000000000000e+00
	-0.000000000000000e+00
 278	2.779999999999994e-10
	0.000000000000000e+00
	-0.000000000000000e+00
 279	2.789999999999993e-10
	0.000000000000000e+00
	-0.000000000000000e+00
 280	2.799999999999993e-10
	0.000000000000000e+00
	-0.000000000000000e+00
 281	2.809999999999993e-10
	0.000000000000000e+00
	-0.000000000000000e+00
 282	2.819999999999993e-10
	0.000000000000000e+00
	-0.000000000000000e+00
 283	2.829999999999993e-10
	0.000000000000000e+00
	-0.000000000000000e+00
 284	2.839999999999993e-10
	0.000000000000000e+00
	-0.000000000000000e+00
 285	2.849999999999993e-10
	0.000000000000000e+00
	-0.000000000000000e+00
 286	2.859999999999993e-10
	0.000000000000000e+00
	-0.000000000000000e+00
 287	2.869999999999993e-10
	0.000000000000000e+00
	-0.000000000000000e+00
 288	2.879999999999993e-10
	0.000000000000000e+00
	-0.000000000000000e+00
 289	2.889999999999993e-10
	0.000000000000000e+00
	-0.000000000000000e+00
 290	2.899999999999993e-10
	0.000000000000000e+00
	-0.000000000000000e+00
 291	2.909999999999993e-10
	0.000000000000000e+00
	-0.000000000000000e+00
 292	2.919999999999993e-10
	0.000000000000000e+00
	-0.000000000000000e+00
 293	2.929999999999993e-10
	0.000000000000000e+00
	-0.000000000000000e+00
 294	2.939999999999993e-10
	0.000000000000000e+00
	-0.000000000000000e+00
 295	2.949999999999993e-10
	0.000000000000000e+00
	-0.000000000000000e+00
 296	2.959999999999993e-10
	0.000000000000000e+00
	-0.000000000000000e+00
 297	2.969999999999993e-10
	0.000000000000000e+00
	-0.000000000000000e+00
 298	2.979999999999993e-10
	0.000000000000000e+00
	-0.000000000000000e+00
 299	2.989999999999993e-10
	0.000000000000000e+00
	-0.000000000000000e+00
 300	2.999999999999993e-10
	0.000000000000000e+00
	-0.000000000000000e+00
 301	3.009999999999993e-10
	0.000000000000000e+00
	-0.000000000000000e+00
 302	3.019999999999993e-10
	0.000000000000000e+00
	-0.000000000000000e+00
 303	3.029999999999993e-10
	0.000000000000000e+00
	-0.000000000000000e+00
 304	3.039999999999993e-10
	0.000000000000000e+00
	-0.000000000000000e+00
 305	3.049999999999993e-10
	0.000000000000000e+00
	-0.000000000000000e+00
 306	3.059999999999993e-10
	0.000000000000000e+00
	-0.000000000000000e+00
 307	3.069999999999993e-10
	0.000000000000000e+00
	-0.000000000000000e+00
 308	3.079999999999992e-10
	0.000000000000000e+00
	-0.000000000000000e+00
 309	3.089999999999992e-10
	0.000000000000000e+00
	-0.000000000000000e+00
 310	3.099999999999992e-10
	0.000000000000000e+00
	-0.000000000000000e+00
 311	3.109999999999992e-10
	0.000000000000000e+00
	-0.000000000000000e+00
 312	3.119999999999992e-10
	0.000000000000000e+00
	-0.000000000000000e+00
 313	3.129999999999992e-10
	0.000000000000000e+00
	-0.000000000000000e+00
 314	3.139999999999992e-10
	0.000000000000000e+00
	-0.000000000000000e+00
 315	3.149999999999992e-10
	0.000000000000000e+00
	-0.000000000000000e+00
 316	3.159999999999992e-10
	0.000000000000000e+00
	-0.000000000000000e+00
 317	3.169999999999992e-10
	0.000000000000000e+00
	-0.000000000000000e+00
 318	3.179999999999992e-10
	0.000000000000000e+00
	-0.000000000000000e+00
 319	3.189999999999992e-10
	0.000000000000000e+00
	-0.000000000000000e+00
 320	3.199999999999992e-10
	0.000000000000000e+00
	-0.000000000000000e+00
 321	3.209999999999992e-10
	0.000000000000000e+00
	-0.000000000000000e+00
 322	3.219999999999992e-10
	0.000000000000000e+00
	-0.000000000000000e+00
 323	3.229999999999992e-10
	0.000000000000000e+00
	-0.000000000000000e+00
 324	3.239999999999992e-10
	0.000000000000000e+00
	-0.000000000000000e+00
 325	3.249999999999992e-10
	0.000000000000000e+00
	-0.000000000000000e+00
 326	3.259999999999992e-10
	0.000000000000000e+00
	-0.000000000000000e+00
 327	3.269999999999992e-10
	0.000000000000000e+00
	-0.000000000000000e+00
 328	3.279999999999992e-10
	0.000000000000000e+00
	-0.000000000000000e+00
 329	3.289999999999992e-10
	0.000000000000000e+00
	-0.000000000000000e+00
 330	3.299999999999992e-10
	0.000000000000000e+00
	-0.000000000000000e+00
 331	3.309999999999992e-10
	0.000000000000000e+00
	-0.000000000000000e+00
 332	3.319999999999992e-10
	0.000000000000000e+00
	-0.000000000000000e+00
 333	3.329999999999992e-10
	0.000000000000000e+00
	-0.000000000000000e+00
 334	3.339999999999992e-10
	0.000000000000000e+00
	-0.000000000000000e+00
 335	3.349999999999992e-10
	0.000000000000000e+00
	-0.000000000000000e+00
 336	3.359999999999991e-10
	0.000000000000000e+00
	-0.000000000000000e+00
 337	3.369999999999991e-10
	0.000000000000000e+00
	-0.000000000000000e+00
 338	3.379999999999991e-10
	0.000000000000000e+00
	-0.000000000000000e+00
 339	3.389999999999991e-10
	0.000000000000000e+00
	-0.000000000000000e+00
 340	3.399999999999991e-10
	0.000000000000000e+00
	-0.000000000000000e+00
 341	3.409999999999991e-10
	0.000000000000000e+00
	-0.000000000000000e+00
 342	3.419999999999991e-10
	0.000000000000000e+00
	-0.000000000000000e+00
 343	3.429999999999991e-10
	0.000000000000000e+00
	-0.000000000000000e+00
 344	3.439999999999991e-10
	0.000000000000000e+00
	-0.000000000000000e+00
 345	3.449999999999991e-10
	0.000000000000000e+00
	-0.000000000000000e+00
 346	3.459999999999991e-10
	0.000000000000000e+00
	-0.000000000000000e+00
 347	3.469999999999991e-10
	0.000000000000000e+00
	-0.000000000000000e+00
 348	3.479999999999991e-10
	0.000000000000000e+00
	-0.000000000000000e+00
 349	3.489999999999991e-10
	0.000000000000000e+00
	-0.000000000000000e+00
 350	3.499999999999991e-10
	0.000000000000000e+00
	-0.000000000000000e+00
 351	3.509999999999991e-10
	0.000000000000000e+00
	-0.000000000000000e+00
 352	3.519999999999991e-10
	0.000000000000000e+00
	-0.000000000000000e+00
 353	3.529999999999991e-10
	0.000000000000000e+00
	-0.000000000000000e+00
 354	3.539999999999991e-10
	0.000000000000000e+00
	-0.000000000000000e+00
 355	3.549999999999991e-10
	0.000000000000000e+00
	-0.000000000000000e+00
 356	3.559999999999991e-10
	0.000000000000000e+00
	-0.000000000000000e+00
 357	3.569999999999991e-10
	0.000000000000000e+00
	-0.000000000000000e+00
 358	3.579999999999991e-10
	0.000000000000000e+00
	-0.000000000000000e+00
 359	3.589999999999991e-10
	0.000000000000000e+00
	-0.000000000000000e+00
 360	3.599999999999991e-10
	0.000000000000000e+00
	-0.000000000000000e+00
 361	3.609999999999991e-10
	0.000000000000000e+00
	-0.000000000000000e+00
 362	3.619999999999991e-10
	0.000000000000000e+00
	-0.000000000000000e+00
 363	3.629999999999991e-10
	0.000000000000000e+00
	-0.000000000000000e+00
 364	3.639999999999991e-10
	0.000000000000000e+00
	-0.000000000000000e+00
 365	3.649999999999990e-10
	0.000000000000000e+00
	-0.000000000000000e+00
 366	3.659999999999990e-10
	0.000000000000000e+00
	-0.000000000000000e+00
 367	3.669999999999990e-10
	0.000000000000000e+00
	-0.000000000000000e+00
 368	3.679999999999990e-10
	0.000000000000000e+00
	-0.000000000000000e+00
 369	3.689999999999990e-10
	0.000000000000000e+00
	-0.000000000000000e+00
 370	3.699999999999990e-10
	0.000000000000000e+00
	-0.000000000000000e+00
 371	3.709999999999990e-10
	0.000000000000000e+00
	-0.000000000000000e+00
 372	3.719999999999990e-10
	0.000000000000000e+00
	-0.000000000000000e+00
 373	3.729999999999990e-10
	0.000000000000000e+00
	-0.000000000000000e+00
 374	3.739999999999990e-10
	0.000000000000000e+00
	-0.000000000000000e+00
 375	3.749999999999990e-10
	0.000000000000000e+00
	-0.000000000000000e+00
 376	3.759999999999990e-10
	0.000000000000000e+00
	-0.000000000000000e+00
 377	3.769999999999990e-10
	0.000000000000000e+00
	-0.000000000000000e+00
 378	3.779999999999990e-10
	0.000000000000000e+00
	-0.000000000000000e+00
 379	3.789999999999990e-10
	0.000000000000000e+00
	-0.000000000000000e+00
 380	3.799999999999990e-10
	0.000000000000000e+00
	-0.000000000000000e+00
 381	3.809999999999990e-10
	0.000000000000000e+00
	-0.000000000000000e+00
 382	3.819999999999990e-10
	0.000000000000000e+00
	-0.000000000000000e+00
 383	3.829999999999990e-10
	0.000000000000000e+00
	-0.000000000000000e+00
 384	3.839999999999990e-10
	0.000000000000000e+00
	-0.000000000000000e+00
 385	3.849999999999990e-10
	0.000000000000000e+00
	-0.000000000000000e+00
 386	3.859999999999990e-10
	0.000000000000000e+00
	-0.000000000000000e+00
 387	3.869999999999990e-10
	0.000000000000000e+00
	-0.000000000000000e+00
 388	3.879999999999990e-10
	0.000000000000000e+00
	-0.000000000000000e+00
 389	3.889999999999990e-10
	0.000000000000000e+00
	-0.000000000000000e+00
 390	3.899999999999990e-10
	0.000000000000000e+00
	-0.000000000000000e+00
 391	3.909999999999990e-10
	0.000000000000000e+00
	-0.000000000000000e+00
 392	3.919999999999990e-10
	0.000000000000000e+00
	-0.000000000000000e+00
 393	3.929999999999990e-10
	0.000000000000000e+00
	-0.000000000000000e+00
 394	3.939999999999989e-10
	0.000000000000000e+00
	-0.000000000000000e+00
 395	3.949999999999989e-10
	0.000000000000000e+00
	-0.000000000000000e+00
 396	3.959999999999989e-10
	0.000000000000000e+00
	-0.000000000000000e+00
 397	3.969999999999989e-10
	0.000000000000000e+00
	-0.000000000000000e+00
 398	3.979999999999989e-10
	0.000000000000000e+00
	-0.000000000000000e+00
 399	3.989999999999989e-10
	0.000000000000000e+00
	-0.000000000000000e+00
 400	3.999999999999989e-10
	0.000000000000000e+00
	-0.000000000000000e+00
 401	4.009999999999989e-10
	0.000000000000000e+00
	-0.000000000000000e+00
 402	4.019999999999989e-10
	0.000000000000000e+00
	-0.000000000000000e+00
 403	4.029999999999989e-10
	0.000000000000000e+00
	-0.000000000000000e+00